1372
step: 1 columns: name, pos cell:12.25,12.25,12.25
A      -5.687500      -5.687500      -5.687500
A      -4.812500      -4.812500      -5.687500
A      -5.687500      -4.812500      -4.812500
A      -4.812500      -5.687500      -4.812500
A      -3.937500      -5.687500      -5.687500
A      -3.062500      -4.812500      -5.687500
A      -3.937500      -4.812500      -4.812500
A      -3.062500      -5.687500      -4.812500
A      -2.187500      -5.687500      -5.687500
A      -1.312500      -4.812500      -5.687500
A      -2.187500      -4.812500      -4.812500
A      -1.312500      -5.687500      -4.812500
A      -0.437500      -5.687500      -5.687500
A       0.437500      -4.812500      -5.687500
A      -0.437500      -4.812500      -4.812500
A       0.437500      -5.687500      -4.812500
A       1.312500      -5.687500      -5.687500
A       2.187500      -4.812500      -5.687500
A       1.312500      -4.812500      -4.812500
A       2.187500      -5.687500      -4.812500
A       3.062500      -5.687500      -5.687500
A       3.937500      -4.812500      -5.687500
A       3.062500      -4.812500      -4.812500
A       3.937500      -5.687500      -4.812500
A       4.812500      -5.687500      -5.687500
A       5.687500      -4.812500      -5.687500
A       4.812500      -4.812500      -4.812500
A       5.687500      -5.687500      -4.812500
A      -5.687500      -3.937500      -5.687500
A      -4.812500      -3.062500      -5.687500
A      -5.687500      -3.062500      -4.812500
A      -4.812500      -3.937500      -4.812500
A      -3.937500      -3.937500      -5.687500
A      -3.062500      -3.062500      -5.687500
A      -3.937500      -3.062500      -4.812500
A      -3.062500      -3.937500      -4.812500
A      -2.187500      -3.937500      -5.687500
A      -1.312500      -3.062500      -5.687500
A      -2.187500      -3.062500      -4.812500
A      -1.312500      -3.937500      -4.812500
A      -0.437500      -3.937500      -5.687500
A       0.437500      -3.062500      -5.687500
A      -0.437500      -3.062500      -4.812500
A       0.437500      -3.937500      -4.812500
A       1.312500      -3.937500      -5.687500
A       2.187500      -3.062500      -5.687500
A       1.312500      -3.062500      -4.812500
A       2.187500      -3.937500      -4.812500
A       3.062500      -3.937500      -5.687500
A       3.937500      -3.062500      -5.687500
A       3.062500      -3.062500      -4.812500
A       3.937500      -3.937500      -4.812500
A       4.812500      -3.937500      -5.687500
A       5.687500      -3.062500      -5.687500
A       4.812500      -3.062500      -4.812500
A       5.687500      -3.937500      -4.812500
A      -5.687500      -2.187500      -5.687500
A      -4.812500      -1.312500      -5.687500
A      -5.687500      -1.312500      -4.812500
A      -4.812500      -2.187500      -4.812500
A      -3.937500      -2.187500      -5.687500
A      -3.062500      -1.312500      -5.687500
A      -3.937500      -1.312500      -4.812500
A      -3.062500      -2.187500      -4.812500
A      -2.187500      -2.187500      -5.687500
A      -1.312500      -1.312500      -5.687500
A      -2.187500      -1.312500      -4.812500
A      -1.312500      -2.187500      -4.812500
A      -0.437500      -2.187500      -5.687500
A       0.437500      -1.312500      -5.687500
A      -0.437500      -1.312500      -4.812500
A       0.437500      -2.187500      -4.812500
A       1.312500      -2.187500      -5.687500
A       2.187500      -1.312500      -5.687500
A       1.312500      -1.312500      -4.812500
A       2.187500      -2.187500      -4.812500
A       3.062500      -2.187500      -5.687500
A       3.937500      -1.312500      -5.687500
A       3.062500      -1.312500      -4.812500
A       3.937500      -2.187500      -4.812500
A       4.812500      -2.187500      -5.687500
A       5.687500      -1.312500      -5.687500
A       4.812500      -1.312500      -4.812500
A       5.687500      -2.187500      -4.812500
A      -5.687500      -0.437500      -5.687500
A      -4.812500       0.437500      -5.687500
A      -5.687500       0.437500      -4.812500
A      -4.812500      -0.437500      -4.812500
A      -3.937500      -0.437500      -5.687500
A      -3.062500       0.437500      -5.687500
A      -3.937500       0.437500      -4.812500
A      -3.062500      -0.437500      -4.812500
A      -2.187500      -0.437500      -5.687500
A      -1.312500       0.437500      -5.687500
A      -2.187500       0.437500      -4.812500
A      -1.312500      -0.437500      -4.812500
A      -0.437500      -0.437500      -5.687500
A       0.437500       0.437500      -5.687500
A      -0.437500       0.437500      -4.812500
A       0.437500      -0.437500      -4.812500
A       1.312500      -0.437500      -5.687500
A       2.187500       0.437500      -5.687500
A       1.312500       0.437500      -4.812500
A       2.187500      -0.437500      -4.812500
A       3.062500      -0.437500      -5.687500
A       3.937500       0.437500      -5.687500
A       3.062500       0.437500      -4.812500
A       3.937500      -0.437500      -4.812500
A       4.812500      -0.437500      -5.687500
A       5.687500       0.437500      -5.687500
A       4.812500       0.437500      -4.812500
A       5.687500      -0.437500      -4.812500
A      -5.687500       1.312500      -5.687500
A      -4.812500       2.187500      -5.687500
A      -5.687500       2.187500      -4.812500
A      -4.812500       1.312500      -4.812500
A      -3.937500       1.312500      -5.687500
A      -3.062500       2.187500      -5.687500
A      -3.937500       2.187500      -4.812500
A      -3.062500       1.312500      -4.812500
A      -2.187500       1.312500      -5.687500
A      -1.312500       2.187500      -5.687500
A      -2.187500       2.187500      -4.812500
A      -1.312500       1.312500      -4.812500
A      -0.437500       1.312500      -5.687500
A       0.437500       2.187500      -5.687500
A      -0.437500       2.187500      -4.812500
A       0.437500       1.312500      -4.812500
A       1.312500       1.312500      -5.687500
A       2.187500       2.187500      -5.687500
A       1.312500       2.187500      -4.812500
A       2.187500       1.312500      -4.812500
A       3.062500       1.312500      -5.687500
A       3.937500       2.187500      -5.687500
A       3.062500       2.187500      -4.812500
A       3.937500       1.312500      -4.812500
A       4.812500       1.312500      -5.687500
A       5.687500       2.187500      -5.687500
A       4.812500       2.187500      -4.812500
A       5.687500       1.312500      -4.812500
A      -5.687500       3.062500      -5.687500
A      -4.812500       3.937500      -5.687500
A      -5.687500       3.937500      -4.812500
A      -4.812500       3.062500      -4.812500
A      -3.937500       3.062500      -5.687500
A      -3.062500       3.937500      -5.687500
A      -3.937500       3.937500      -4.812500
A      -3.062500       3.062500      -4.812500
A      -2.187500       3.062500      -5.687500
A      -1.312500       3.937500      -5.687500
A      -2.187500       3.937500      -4.812500
A      -1.312500       3.062500      -4.812500
A      -0.437500       3.062500      -5.687500
A       0.437500       3.937500      -5.687500
A      -0.437500       3.937500      -4.812500
A       0.437500       3.062500      -4.812500
A       1.312500       3.062500      -5.687500
A       2.187500       3.937500      -5.687500
A       1.312500       3.937500      -4.812500
A       2.187500       3.062500      -4.812500
A       3.062500       3.062500      -5.687500
A       3.937500       3.937500      -5.687500
A       3.062500       3.937500      -4.812500
A       3.937500       3.062500      -4.812500
A       4.812500       3.062500      -5.687500
A       5.687500       3.937500      -5.687500
A       4.812500       3.937500      -4.812500
A       5.687500       3.062500      -4.812500
A      -5.687500       4.812500      -5.687500
A      -4.812500       5.687500      -5.687500
A      -5.687500       5.687500      -4.812500
A      -4.812500       4.812500      -4.812500
A      -3.937500       4.812500      -5.687500
A      -3.062500       5.687500      -5.687500
A      -3.937500       5.687500      -4.812500
A      -3.062500       4.812500      -4.812500
A      -2.187500       4.812500      -5.687500
A      -1.312500       5.687500      -5.687500
A      -2.187500       5.687500      -4.812500
A      -1.312500       4.812500      -4.812500
A      -0.437500       4.812500      -5.687500
A       0.437500       5.687500      -5.687500
A      -0.437500       5.687500      -4.812500
A       0.437500       4.812500      -4.812500
A       1.312500       4.812500      -5.687500
A       2.187500       5.687500      -5.687500
A       1.312500       5.687500      -4.812500
A       2.187500       4.812500      -4.812500
A       3.062500       4.812500      -5.687500
A       3.937500       5.687500      -5.687500
A       3.062500       5.687500      -4.812500
A       3.937500       4.812500      -4.812500
A       4.812500       4.812500      -5.687500
A       5.687500       5.687500      -5.687500
A       4.812500       5.687500      -4.812500
A       5.687500       4.812500      -4.812500
A      -5.687500      -5.687500      -3.937500
A      -4.812500      -4.812500      -3.937500
A      -5.687500      -4.812500      -3.062500
A      -4.812500      -5.687500      -3.062500
A      -3.937500      -5.687500      -3.937500
A      -3.062500      -4.812500      -3.937500
A      -3.937500      -4.812500      -3.062500
A      -3.062500      -5.687500      -3.062500
A      -2.187500      -5.687500      -3.937500
A      -1.312500      -4.812500      -3.937500
A      -2.187500      -4.812500      -3.062500
A      -1.312500      -5.687500      -3.062500
A      -0.437500      -5.687500      -3.937500
A       0.437500      -4.812500      -3.937500
A      -0.437500      -4.812500      -3.062500
A       0.437500      -5.687500      -3.062500
A       1.312500      -5.687500      -3.937500
A       2.187500      -4.812500      -3.937500
A       1.312500      -4.812500      -3.062500
A       2.187500      -5.687500      -3.062500
A       3.062500      -5.687500      -3.937500
A       3.937500      -4.812500      -3.937500
A       3.062500      -4.812500      -3.062500
A       3.937500      -5.687500      -3.062500
A       4.812500      -5.687500      -3.937500
A       5.687500      -4.812500      -3.937500
A       4.812500      -4.812500      -3.062500
A       5.687500      -5.687500      -3.062500
A      -5.687500      -3.937500      -3.937500
A      -4.812500      -3.062500      -3.937500
A      -5.687500      -3.062500      -3.062500
A      -4.812500      -3.937500      -3.062500
A      -3.937500      -3.937500      -3.937500
A      -3.062500      -3.062500      -3.937500
A      -3.937500      -3.062500      -3.062500
A      -3.062500      -3.937500      -3.062500
A      -2.187500      -3.937500      -3.937500
A      -1.312500      -3.062500      -3.937500
A      -2.187500      -3.062500      -3.062500
A      -1.312500      -3.937500      -3.062500
A      -0.437500      -3.937500      -3.937500
A       0.437500      -3.062500      -3.937500
A      -0.437500      -3.062500      -3.062500
A       0.437500      -3.937500      -3.062500
A       1.312500      -3.937500      -3.937500
A       2.187500      -3.062500      -3.937500
A       1.312500      -3.062500      -3.062500
A       2.187500      -3.937500      -3.062500
A       3.062500      -3.937500      -3.937500
A       3.937500      -3.062500      -3.937500
A       3.062500      -3.062500      -3.062500
A       3.937500      -3.937500      -3.062500
A       4.812500      -3.937500      -3.937500
A       5.687500      -3.062500      -3.937500
A       4.812500      -3.062500      -3.062500
A       5.687500      -3.937500      -3.062500
A      -5.687500      -2.187500      -3.937500
A      -4.812500      -1.312500      -3.937500
A      -5.687500      -1.312500      -3.062500
A      -4.812500      -2.187500      -3.062500
A      -3.937500      -2.187500      -3.937500
A      -3.062500      -1.312500      -3.937500
A      -3.937500      -1.312500      -3.062500
A      -3.062500      -2.187500      -3.062500
A      -2.187500      -2.187500      -3.937500
A      -1.312500      -1.312500      -3.937500
A      -2.187500      -1.312500      -3.062500
A      -1.312500      -2.187500      -3.062500
A      -0.437500      -2.187500      -3.937500
A       0.437500      -1.312500      -3.937500
A      -0.437500      -1.312500      -3.062500
A       0.437500      -2.187500      -3.062500
A       1.312500      -2.187500      -3.937500
A       2.187500      -1.312500      -3.937500
A       1.312500      -1.312500      -3.062500
A       2.187500      -2.187500      -3.062500
A       3.062500      -2.187500      -3.937500
A       3.937500      -1.312500      -3.937500
A       3.062500      -1.312500      -3.062500
A       3.937500      -2.187500      -3.062500
A       4.812500      -2.187500      -3.937500
A       5.687500      -1.312500      -3.937500
A       4.812500      -1.312500      -3.062500
A       5.687500      -2.187500      -3.062500
A      -5.687500      -0.437500      -3.937500
A      -4.812500       0.437500      -3.937500
A      -5.687500       0.437500      -3.062500
A      -4.812500      -0.437500      -3.062500
A      -3.937500      -0.437500      -3.937500
A      -3.062500       0.437500      -3.937500
A      -3.937500       0.437500      -3.062500
A      -3.062500      -0.437500      -3.062500
A      -2.187500      -0.437500      -3.937500
A      -1.312500       0.437500      -3.937500
A      -2.187500       0.437500      -3.062500
A      -1.312500      -0.437500      -3.062500
A      -0.437500      -0.437500      -3.937500
A       0.437500       0.437500      -3.937500
A      -0.437500       0.437500      -3.062500
A       0.437500      -0.437500      -3.062500
A       1.312500      -0.437500      -3.937500
A       2.187500       0.437500      -3.937500
A       1.312500       0.437500      -3.062500
A       2.187500      -0.437500      -3.062500
A       3.062500      -0.437500      -3.937500
A       3.937500       0.437500      -3.937500
A       3.062500       0.437500      -3.062500
A       3.937500      -0.437500      -3.062500
A       4.812500      -0.437500      -3.937500
A       5.687500       0.437500      -3.937500
A       4.812500       0.437500      -3.062500
A       5.687500      -0.437500      -3.062500
A      -5.687500       1.312500      -3.937500
A      -4.812500       2.187500      -3.937500
A      -5.687500       2.187500      -3.062500
A      -4.812500       1.312500      -3.062500
A      -3.937500       1.312500      -3.937500
A      -3.062500       2.187500      -3.937500
A      -3.937500       2.187500      -3.062500
A      -3.062500       1.312500      -3.062500
A      -2.187500       1.312500      -3.937500
A      -1.312500       2.187500      -3.937500
A      -2.187500       2.187500      -3.062500
A      -1.312500       1.312500      -3.062500
A      -0.437500       1.312500      -3.937500
A       0.437500       2.187500      -3.937500
A      -0.437500       2.187500      -3.062500
A       0.437500       1.312500      -3.062500
A       1.312500       1.312500      -3.937500
A       2.187500       2.187500      -3.937500
A       1.312500       2.187500      -3.062500
A       2.187500       1.312500      -3.062500
A       3.062500       1.312500      -3.937500
A       3.937500       2.187500      -3.937500
A       3.062500       2.187500      -3.062500
A       3.937500       1.312500      -3.062500
A       4.812500       1.312500      -3.937500
A       5.687500       2.187500      -3.937500
A       4.812500       2.187500      -3.062500
A       5.687500       1.312500      -3.062500
A      -5.687500       3.062500      -3.937500
A      -4.812500       3.937500      -3.937500
A      -5.687500       3.937500      -3.062500
A      -4.812500       3.062500      -3.062500
A      -3.937500       3.062500      -3.937500
A      -3.062500       3.937500      -3.937500
A      -3.937500       3.937500      -3.062500
A      -3.062500       3.062500      -3.062500
A      -2.187500       3.062500      -3.937500
A      -1.312500       3.937500      -3.937500
A      -2.187500       3.937500      -3.062500
A      -1.312500       3.062500      -3.062500
A      -0.437500       3.062500      -3.937500
A       0.437500       3.937500      -3.937500
A      -0.437500       3.937500      -3.062500
A       0.437500       3.062500      -3.062500
A       1.312500       3.062500      -3.937500
A       2.187500       3.937500      -3.937500
A       1.312500       3.937500      -3.062500
A       2.187500       3.062500      -3.062500
A       3.062500       3.062500      -3.937500
A       3.937500       3.937500      -3.937500
A       3.062500       3.937500      -3.062500
A       3.937500       3.062500      -3.062500
A       4.812500       3.062500      -3.937500
A       5.687500       3.937500      -3.937500
A       4.812500       3.937500      -3.062500
A       5.687500       3.062500      -3.062500
A      -5.687500       4.812500      -3.937500
A      -4.812500       5.687500      -3.937500
A      -5.687500       5.687500      -3.062500
A      -4.812500       4.812500      -3.062500
A      -3.937500       4.812500      -3.937500
A      -3.062500       5.687500      -3.937500
A      -3.937500       5.687500      -3.062500
A      -3.062500       4.812500      -3.062500
A      -2.187500       4.812500      -3.937500
A      -1.312500       5.687500      -3.937500
A      -2.187500       5.687500      -3.062500
A      -1.312500       4.812500      -3.062500
A      -0.437500       4.812500      -3.937500
A       0.437500       5.687500      -3.937500
A      -0.437500       5.687500      -3.062500
A       0.437500       4.812500      -3.062500
A       1.312500       4.812500      -3.937500
A       2.187500       5.687500      -3.937500
A       1.312500       5.687500      -3.062500
A       2.187500       4.812500      -3.062500
A       3.062500       4.812500      -3.937500
A       3.937500       5.687500      -3.937500
A       3.062500       5.687500      -3.062500
A       3.937500       4.812500      -3.062500
A       4.812500       4.812500      -3.937500
A       5.687500       5.687500      -3.937500
A       4.812500       5.687500      -3.062500
A       5.687500       4.812500      -3.062500
A      -5.687500      -5.687500      -2.187500
A      -4.812500      -4.812500      -2.187500
A      -5.687500      -4.812500      -1.312500
A      -4.812500      -5.687500      -1.312500
A      -3.937500      -5.687500      -2.187500
A      -3.062500      -4.812500      -2.187500
A      -3.937500      -4.812500      -1.312500
A      -3.062500      -5.687500      -1.312500
A      -2.187500      -5.687500      -2.187500
A      -1.312500      -4.812500      -2.187500
A      -2.187500      -4.812500      -1.312500
A      -1.312500      -5.687500      -1.312500
A      -0.437500      -5.687500      -2.187500
A       0.437500      -4.812500      -2.187500
A      -0.437500      -4.812500      -1.312500
A       0.437500      -5.687500      -1.312500
A       1.312500      -5.687500      -2.187500
A       2.187500      -4.812500      -2.187500
A       1.312500      -4.812500      -1.312500
A       2.187500      -5.687500      -1.312500
A       3.062500      -5.687500      -2.187500
A       3.937500      -4.812500      -2.187500
A       3.062500      -4.812500      -1.312500
A       3.937500      -5.687500      -1.312500
A       4.812500      -5.687500      -2.187500
A       5.687500      -4.812500      -2.187500
A       4.812500      -4.812500      -1.312500
A       5.687500      -5.687500      -1.312500
A      -5.687500      -3.937500      -2.187500
A      -4.812500      -3.062500      -2.187500
A      -5.687500      -3.062500      -1.312500
A      -4.812500      -3.937500      -1.312500
A      -3.937500      -3.937500      -2.187500
A      -3.062500      -3.062500      -2.187500
A      -3.937500      -3.062500      -1.312500
A      -3.062500      -3.937500      -1.312500
A      -2.187500      -3.937500      -2.187500
A      -1.312500      -3.062500      -2.187500
A      -2.187500      -3.062500      -1.312500
A      -1.312500      -3.937500      -1.312500
A      -0.437500      -3.937500      -2.187500
A       0.437500      -3.062500      -2.187500
A      -0.437500      -3.062500      -1.312500
A       0.437500      -3.937500      -1.312500
A       1.312500      -3.937500      -2.187500
A       2.187500      -3.062500      -2.187500
A       1.312500      -3.062500      -1.312500
A       2.187500      -3.937500      -1.312500
A       3.062500      -3.937500      -2.187500
A       3.937500      -3.062500      -2.187500
A       3.062500      -3.062500      -1.312500
A       3.937500      -3.937500      -1.312500
A       4.812500      -3.937500      -2.187500
A       5.687500      -3.062500      -2.187500
A       4.812500      -3.062500      -1.312500
A       5.687500      -3.937500      -1.312500
A      -5.687500      -2.187500      -2.187500
A      -4.812500      -1.312500      -2.187500
A      -5.687500      -1.312500      -1.312500
A      -4.812500      -2.187500      -1.312500
A      -3.937500      -2.187500      -2.187500
A      -3.062500      -1.312500      -2.187500
A      -3.937500      -1.312500      -1.312500
A      -3.062500      -2.187500      -1.312500
A      -2.187500      -2.187500      -2.187500
A      -1.312500      -1.312500      -2.187500
A      -2.187500      -1.312500      -1.312500
A      -1.312500      -2.187500      -1.312500
A      -0.437500      -2.187500      -2.187500
A       0.437500      -1.312500      -2.187500
A      -0.437500      -1.312500      -1.312500
A       0.437500      -2.187500      -1.312500
A       1.312500      -2.187500      -2.187500
A       2.187500      -1.312500      -2.187500
A       1.312500      -1.312500      -1.312500
A       2.187500      -2.187500      -1.312500
A       3.062500      -2.187500      -2.187500
A       3.937500      -1.312500      -2.187500
A       3.062500      -1.312500      -1.312500
A       3.937500      -2.187500      -1.312500
A       4.812500      -2.187500      -2.187500
A       5.687500      -1.312500      -2.187500
A       4.812500      -1.312500      -1.312500
A       5.687500      -2.187500      -1.312500
A      -5.687500      -0.437500      -2.187500
A      -4.812500       0.437500      -2.187500
A      -5.687500       0.437500      -1.312500
A      -4.812500      -0.437500      -1.312500
A      -3.937500      -0.437500      -2.187500
A      -3.062500       0.437500      -2.187500
A      -3.937500       0.437500      -1.312500
A      -3.062500      -0.437500      -1.312500
A      -2.187500      -0.437500      -2.187500
A      -1.312500       0.437500      -2.187500
A      -2.187500       0.437500      -1.312500
A      -1.312500      -0.437500      -1.312500
A      -0.437500      -0.437500      -2.187500
A       0.437500       0.437500      -2.187500
A      -0.437500       0.437500      -1.312500
A       0.437500      -0.437500      -1.312500
A       1.312500      -0.437500      -2.187500
A       2.187500       0.437500      -2.187500
A       1.312500       0.437500      -1.312500
A       2.187500      -0.437500      -1.312500
A       3.062500      -0.437500      -2.187500
A       3.937500       0.437500      -2.187500
A       3.062500       0.437500      -1.312500
A       3.937500      -0.437500      -1.312500
A       4.812500      -0.437500      -2.187500
A       5.687500       0.437500      -2.187500
A       4.812500       0.437500      -1.312500
A       5.687500      -0.437500      -1.312500
A      -5.687500       1.312500      -2.187500
A      -4.812500       2.187500      -2.187500
A      -5.687500       2.187500      -1.312500
A      -4.812500       1.312500      -1.312500
A      -3.937500       1.312500      -2.187500
A      -3.062500       2.187500      -2.187500
A      -3.937500       2.187500      -1.312500
A      -3.062500       1.312500      -1.312500
A      -2.187500       1.312500      -2.187500
A      -1.312500       2.187500      -2.187500
A      -2.187500       2.187500      -1.312500
A      -1.312500       1.312500      -1.312500
A      -0.437500       1.312500      -2.187500
A       0.437500       2.187500      -2.187500
A      -0.437500       2.187500      -1.312500
A       0.437500       1.312500      -1.312500
A       1.312500       1.312500      -2.187500
A       2.187500       2.187500      -2.187500
A       1.312500       2.187500      -1.312500
A       2.187500       1.312500      -1.312500
A       3.062500       1.312500      -2.187500
A       3.937500       2.187500      -2.187500
A       3.062500       2.187500      -1.312500
A       3.937500       1.312500      -1.312500
A       4.812500       1.312500      -2.187500
A       5.687500       2.187500      -2.187500
A       4.812500       2.187500      -1.312500
A       5.687500       1.312500      -1.312500
A      -5.687500       3.062500      -2.187500
A      -4.812500       3.937500      -2.187500
A      -5.687500       3.937500      -1.312500
A      -4.812500       3.062500      -1.312500
A      -3.937500       3.062500      -2.187500
A      -3.062500       3.937500      -2.187500
A      -3.937500       3.937500      -1.312500
A      -3.062500       3.062500      -1.312500
A      -2.187500       3.062500      -2.187500
A      -1.312500       3.937500      -2.187500
A      -2.187500       3.937500      -1.312500
A      -1.312500       3.062500      -1.312500
A      -0.437500       3.062500      -2.187500
A       0.437500       3.937500      -2.187500
A      -0.437500       3.937500      -1.312500
A       0.437500       3.062500      -1.312500
A       1.312500       3.062500      -2.187500
A       2.187500       3.937500      -2.187500
A       1.312500       3.937500      -1.312500
A       2.187500       3.062500      -1.312500
A       3.062500       3.062500      -2.187500
A       3.937500       3.937500      -2.187500
A       3.062500       3.937500      -1.312500
A       3.937500       3.062500      -1.312500
A       4.812500       3.062500      -2.187500
A       5.687500       3.937500      -2.187500
A       4.812500       3.937500      -1.312500
A       5.687500       3.062500      -1.312500
A      -5.687500       4.812500      -2.187500
A      -4.812500       5.687500      -2.187500
A      -5.687500       5.687500      -1.312500
A      -4.812500       4.812500      -1.312500
A      -3.937500       4.812500      -2.187500
A      -3.062500       5.687500      -2.187500
A      -3.937500       5.687500      -1.312500
A      -3.062500       4.812500      -1.312500
A      -2.187500       4.812500      -2.187500
A      -1.312500       5.687500      -2.187500
A      -2.187500       5.687500      -1.312500
A      -1.312500       4.812500      -1.312500
A      -0.437500       4.812500      -2.187500
A       0.437500       5.687500      -2.187500
A      -0.437500       5.687500      -1.312500
A       0.437500       4.812500      -1.312500
A       1.312500       4.812500      -2.187500
A       2.187500       5.687500      -2.187500
A       1.312500       5.687500      -1.312500
A       2.187500       4.812500      -1.312500
A       3.062500       4.812500      -2.187500
A       3.937500       5.687500      -2.187500
A       3.062500       5.687500      -1.312500
A       3.937500       4.812500      -1.312500
A       4.812500       4.812500      -2.187500
A       5.687500       5.687500      -2.187500
A       4.812500       5.687500      -1.312500
A       5.687500       4.812500      -1.312500
A      -5.687500      -5.687500      -0.437500
A      -4.812500      -4.812500      -0.437500
A      -5.687500      -4.812500       0.437500
A      -4.812500      -5.687500       0.437500
A      -3.937500      -5.687500      -0.437500
A      -3.062500      -4.812500      -0.437500
A      -3.937500      -4.812500       0.437500
A      -3.062500      -5.687500       0.437500
A      -2.187500      -5.687500      -0.437500
A      -1.312500      -4.812500      -0.437500
A      -2.187500      -4.812500       0.437500
A      -1.312500      -5.687500       0.437500
A      -0.437500      -5.687500      -0.437500
A       0.437500      -4.812500      -0.437500
A      -0.437500      -4.812500       0.437500
A       0.437500      -5.687500       0.437500
A       1.312500      -5.687500      -0.437500
A       2.187500      -4.812500      -0.437500
A       1.312500      -4.812500       0.437500
A       2.187500      -5.687500       0.437500
A       3.062500      -5.687500      -0.437500
A       3.937500      -4.812500      -0.437500
A       3.062500      -4.812500       0.437500
A       3.937500      -5.687500       0.437500
A       4.812500      -5.687500      -0.437500
A       5.687500      -4.812500      -0.437500
A       4.812500      -4.812500       0.437500
A       5.687500      -5.687500       0.437500
A      -5.687500      -3.937500      -0.437500
A      -4.812500      -3.062500      -0.437500
A      -5.687500      -3.062500       0.437500
A      -4.812500      -3.937500       0.437500
A      -3.937500      -3.937500      -0.437500
A      -3.062500      -3.062500      -0.437500
A      -3.937500      -3.062500       0.437500
A      -3.062500      -3.937500       0.437500
A      -2.187500      -3.937500      -0.437500
A      -1.312500      -3.062500      -0.437500
A      -2.187500      -3.062500       0.437500
A      -1.312500      -3.937500       0.437500
A      -0.437500      -3.937500      -0.437500
A       0.437500      -3.062500      -0.437500
A      -0.437500      -3.062500       0.437500
A       0.437500      -3.937500       0.437500
A       1.312500      -3.937500      -0.437500
A       2.187500      -3.062500      -0.437500
A       1.312500      -3.062500       0.437500
A       2.187500      -3.937500       0.437500
A       3.062500      -3.937500      -0.437500